FeMgSiO3H                               
           1
    14.000000    0.000000    0.000000
     0.000000   14.000000    0.000000
     0.000000    0.000000   14.000000
   Fe   Mg   Si   O    H 
  44  51  36 125   8
Direct configuration=     1
   0.09776115  0.92936870  0.81534339
   0.90595111  0.28599780  0.04473325
   0.02597898  0.03165531  0.14838754
   0.10332273  0.50940830  0.89519448
   0.77452444  0.00377231  0.88133535
   0.83115693  0.36561058  0.17774798
   0.16681561  0.09338618  0.02785019
   0.03902093  0.32958381  0.14024890
   0.02573437  0.67350379  0.04620614
   0.13704614  0.14475922  0.14553892
   0.24314398  0.05754573  0.81422856
   0.29811874  0.11663528  0.20765108
   0.25241223  0.78144284  0.07910405
   0.06880540  0.94401360  0.29405031
   0.92843087  0.05291349  0.89414527
   0.08493624  0.71505454  0.86924651
   0.10605946  0.81784804  0.17784604
   0.23978766  0.25559842  0.10311154
   0.28686981  0.46046121  0.06232890
   0.98687242  0.45745087  0.27911143
   0.81166235  0.17303862  0.96113476
   0.86206285  0.04080591  0.04219396
   0.94958451  0.56716423  0.13339850
   0.21548942  0.95097373  0.94621022
   0.98561754  0.84693501  0.13565510
   0.93966055  0.88149864  0.85038555
   0.37835604  0.02228627  0.90489078
   0.06580747  0.83330522  0.99232160
   0.16497077  0.96663262  0.09457505
   0.16173131  0.38774354  0.97394774
   0.10139243  0.24702143  0.96964698
   0.88027439  0.43123932  0.05413730
   0.95519405  0.54994599  0.95807633
   0.98874239  0.12714031  0.99336816
   0.18234496  0.59482039  0.11829190
   0.35269398  0.86395404  0.01477072
   0.04388071  0.46043951  0.03619472
   0.18854188  0.00010347  0.26528620
   0.99279747  0.37011456  0.93137551
   0.31390012  0.03271900  0.04256008
   0.03704280  0.98875502  0.00390393
   0.89006328  0.88744653  0.97846708
   0.93065737  0.72186027  0.90272446
   0.13777244  0.47560549  0.22200848
   0.29185212  0.89724814  0.52733267
   0.36562497  0.67864047  0.92232953
   0.59176473  0.71033280  0.75813652
   0.67833793  0.25074909  0.73624354
   0.41992563  0.95170222  0.66055123
   0.75398074  0.85392454  0.10732594
   0.10242438  0.46810081  0.65122068
   0.64561923  0.06682358  0.09472786
   0.66571710  0.81339602  0.92839509
   0.10038006  0.03073307  0.47772229
   0.64672473  0.65250915  0.51373435
   0.32389036  0.43356751  0.57300731
   0.04066095  0.20447612  0.38224837
   0.05003416  0.04677511  0.66568731
   0.76057061  0.56969326  0.83567444
   0.16409716  0.56981330  0.41047662
   0.34090843  0.39901135  0.87775048
   0.79017673  0.91750006  0.48137457
   0.93230118  0.78408823  0.30002915
   0.33574306  0.21135560  0.95297211
   0.32476537  0.77903636  0.72892534
   0.74704086  0.63108009  0.25781054
   0.82940977  0.98350356  0.25603318
   0.65152620  0.25889836  0.49736919
   0.88849295  0.52915427  0.39588047
   0.46926634  0.13137430  0.52986671
   0.58031499  0.01228937  0.28676960
   0.11908775  0.26647969  0.60661404
   0.57296497  0.70515312  0.14600486
   0.66348975  0.22693215  0.27215021
   0.48536662  0.16209167  0.36988389
   0.68945072  0.32828681  0.99940627
   0.45193545  0.29451444  0.14199323
   0.21990653  0.57333757  0.80710192
   0.37852560  0.66968769  0.19738374
   0.84886160  0.02785966  0.64207501
   0.70860085  0.58903479  0.04557800
   0.40720569  0.86536488  0.19792563
   0.29643660  0.68855636  0.55054737
   0.55188232  0.43773480  0.86943906
   0.81560227  0.78140435  0.67146471
   0.62673656  0.84920565  0.63018960
   0.93887566  0.50509806  0.76514587
   0.45989421  0.49630721  0.28756536
   0.50523875  0.52112882  0.49272507
   0.26271083  0.32832460  0.36036492
   0.00426178  0.87800052  0.55715188
   0.86518913  0.34349479  0.60639466
   0.10343271  0.76668668  0.43535116
   0.89362110  0.18008577  0.77656692
   0.42936878  0.16209234  0.75886690
   0.13892186  0.87338904  0.69320595
   0.55836972  0.16024930  0.91605001
   0.51290032  0.90319273  0.46401578
   0.45387706  0.87577324  0.85172755
   0.66545909  0.06141992  0.47970242
   0.82084342  0.39422559  0.86738351
   0.05552534  0.30734693  0.80153209
   0.24307385  0.11827502  0.35911356
   0.86606959  0.55907570  0.59275947
   0.61677450  0.44947204  0.62199010
   0.58017098  0.07278334  0.68409837
   0.47574498  0.73335053  0.58696857
   0.29269820  0.80794382  0.33349992
   0.19353761  0.78321917  0.91828686
   0.69500114  0.94120776  0.75129903
   0.54028773  0.59658386  0.91490972
   0.40099488  0.55949298  0.74410725
   0.08361314  0.68397463  0.63034259
   0.06751483  0.64240454  0.25278688
   0.27363459  0.26706775  0.73277815
   0.45739160  0.07261728  0.10207961
   0.46674201  0.34990568  0.70898941
   0.80892870  0.19806075  0.12083752
   0.45116611  0.32974749  0.38137129
   0.70515260  0.82120012  0.30231398
   0.65674551  0.45343991  0.17487694
   0.82842991  0.26725018  0.38234641
   0.89716393  0.10018741  0.45213852
   0.27926796  0.07972649  0.54912231
   0.85897436  0.73325587  0.03792629
   0.50938469  0.86194460  0.02866850
   0.09593968  0.10401187  0.84466055
   0.50644366  0.49380038  0.07014609
   0.49731078  0.77587739  0.32107001
   0.06973415  0.39832565  0.46532231
   0.84435539  0.72145788  0.45489810
   0.67181142  0.09453488  0.94500586
   0.88810102  0.85520261  0.22026507
   0.30246432  0.55806169  0.50841943
   0.37619321  0.95366358  0.79335882
   0.69554429  0.81598957  0.75307345
   0.02337376  0.76697495  0.67474171
   0.73660164  0.76407463  0.22261033
   0.24686190  0.15379502  0.72515390
   0.74435487  0.73466331  0.04308846
   0.57606035  0.14887222  0.22590739
   0.51109092  0.25864071  0.45513771
   0.13793528  0.41735262  0.37318467
   0.48729624  0.45479463  0.61157518
   0.50595681  0.59333684  0.78738328
   0.57661455  0.28171719  0.91385638
   0.10666847  0.58497575  0.02189722
   0.49610935  0.69345638  0.93867341
   0.46608278  0.98922587  0.51326468
   0.01423654  0.59114656  0.82690644
   0.03931581  0.20328606  0.75921055
   0.98200511  0.08445804  0.52769266
   0.40809021  0.63416879  0.62865638
   0.45141912  0.51265377  0.96560707
   0.35450534  0.20851444  0.14153399
   0.70675745  0.99269351  0.65270627
   0.58618966  0.40437887  0.07830821
   0.92122776  0.20042491  0.38870350
   0.32312459  0.64545206  0.78859730
   0.59926424  0.12285856  0.56551597
   0.43408482  0.85455595  0.38080259
   0.90092152  0.79259342  0.77126545
   0.16501359  0.41491961  0.54278546
   0.66646491  0.69034730  0.86204055
   0.38013448  0.75726884  0.28753298
   0.20949163  0.74522482  0.26853643
   0.69837850  0.37235503  0.24724030
   0.15358358  0.36654080  0.16927733
   0.29800248  0.98428704  0.62095797
   0.67725711  0.16025591  0.41762353
   0.44490246  0.43254201  0.79637223
   0.50864905  0.42418176  0.41584736
   0.95562787  0.06135151  0.25122630
   0.97805064  0.57843539  0.64153120
   0.77408756  0.52365805  0.16166590
   0.31176138  0.91132473  0.28024658
   0.52641741  0.15543023  0.03073538
   0.64785811  0.34104163  0.62729991
   0.33519742  0.41046270  0.28861847
   0.44245011  0.03750375  0.27092210
   0.54699208  0.98613051  0.11634045
   0.48176324  0.08455874  0.84561197
   0.41927058  0.47059092  0.13933323
   0.87302740  0.90339352  0.61722554
   0.64027003  0.50968082  0.52207451
   0.84965345  0.01515181  0.38188321
   0.78654442  0.05240112  0.53178544
   0.56297774  0.60187416  0.07041171
   0.82493862  0.46134864  0.57588067
   0.30867144  0.58252376  0.10599786
   0.40588141  0.74237229  0.07797417
   0.81886636  0.82222382  0.36610625
   0.50580973  0.31628188  0.26528897
   0.15588078  0.12156621  0.58092967
   0.82541580  0.25707531  0.70338608
   0.65285631  0.50151533  0.73787613
   0.54502347  0.27469817  0.72422047
   0.38844871  0.81004329  0.59213389
   0.89847491  0.04488568  0.77420360
   0.45994608  0.09154353  0.65966418
   0.04801937  0.89681600  0.42928038
   0.79856004  0.45375809  0.76596235
   0.18139209  0.32481752  0.73839347
   0.58614610  0.70273727  0.62509619
   0.93400103  0.79132443  0.49384246
   0.34052534  0.16496703  0.54650676
   0.78484158  0.44136385  0.98822885
   0.70362705  0.93277332  0.26241953
   0.16488707  0.21555620  0.36094808
   0.35870460  0.26096303  0.83659511
   0.08637121  0.07354311  0.34638227
   0.79372812  0.28768659  0.48676103
   0.23215549  0.50138487  0.93352202
   0.54424545  0.95839383  0.71889052
   0.88514171  0.56992346  0.27077236
   0.64606477  0.12410165  0.78821249
   0.13004125  0.92629476  0.58400689
   0.46622856  0.68078349  0.48146860
   0.33626657  0.19226790  0.34588398
   0.24422011  0.78763124  0.44223588
   0.51162959  0.66476007  0.30410769
   0.81149343  0.63846754  0.66721788
   0.20608513  0.77123816  0.67431729
   0.35857565  0.82091447  0.88694949
   0.36543103  0.32636931  0.47746614
   0.46016643  0.77232105  0.75182260
   0.27957978  0.03283912  0.45160693
   0.54712594  0.05406395  0.41651189
   0.88736033  0.61340946  0.48844247
   0.54012135  0.82064213  0.53231045
   0.59501401  0.52480300  0.21835288
   0.26509959  0.56505871  0.31259281
   0.13817275  0.60360633  0.71127651
   0.55302657  0.90096827  0.89660649
   0.61405136  0.81290871  0.05492339
   0.85396107  0.61879610  0.90225252
   0.73731762  0.76902410  0.53217449
   0.68898880  0.21337668  0.09745580
   0.63829058  0.52145930  0.91758514
   0.36123134  0.30848481  0.66695155
   0.02158057  0.37028532  0.68990626
   0.41869428  0.33108727  0.98697032
   0.90733940  0.38067279  0.35585271
   0.53454319  0.84007354  0.22667279
   0.65692647  0.93859675  0.46841675
   0.76382506  0.64875205  0.38581560
   0.80693583  0.08663471  0.16015075
   0.30565559  0.46972595  0.71320425
   0.01954503  0.68170144  0.35624431
   0.00619920  0.48493700  0.46663162
   0.12202696  0.64131930  0.53238878
   0.61942499  0.80054981  0.37056696
   0.01727290  0.29805206  0.49679572
   0.76829329  0.29582631  0.89440011
   0.77547194  0.94408807  0.01213363
   0.78284177  0.20397493  0.29202718
   0.25772171  0.03892081  0.95364469
   0.21996393  0.91329508  0.78251685
   0.34043633  0.26067017  0.52233007
   0.40356624  0.02666998  0.32361958
   0.98484897  0.79627814  0.73084194
   0.94109176  0.30214470  0.86800737
   0.35425701  0.35753244  0.00149572
   0.29366017  0.48720181  0.32778878